# Probe 0 (500 500 100)
#             Probe                   0
#              Time
     0.499937507812                   (-1.54486010653 -1.25766938326 -2.70730952603e-08)
      1.09983252243                   (-1.54485320476 -1.25767773634 -8.14885033764e-08)
      1.81957697302                   (-1.54483499582 -1.25769996944 -1.87683485654e-07)
      2.68311486137                   (-1.5448293147 -1.25770685722 -3.70217498176e-07)
      3.71922602911                   (-1.54483646341 -1.25769811116 -6.43675782177e-07)
      4.94658498917                   (-1.54484284007 -1.25769058205 -9.7102915897e-07)
      6.36528293484                   (-1.54484228901 -1.25769194667 -1.2538758312e-06)
      7.97497044676                   (-1.54483947539 -1.25769653675 -1.35746066114e-06)
      9.77561322058                   (-1.54483935351 -1.2576981594 -1.07408106507e-06)
      11.6930684761                   (-1.54484135287 -1.25769707699 -2.91989590283e-07)
      13.6114460286                   (-1.54484283649 -1.25769616877 8.92093733739e-07)
      15.5316717289                   (-1.54484305091 -1.25769621953 2.49690504583e-06)
      17.4546776789                   (-1.54484255017 -1.25769626622 4.30293357612e-06)
      19.3795425036                   (-1.54484190958 -1.25769560679 6.04751483776e-06)
      21.3072037421                   (-1.54484104388 -1.25769429613 7.53666996588e-06)
      23.2367346811                   (-1.54483987669 -1.25769269955 8.51824653908e-06)
      25.1690783474                   (-1.54483852229 -1.25769116096 8.62684057979e-06)
      27.1033026402                   (-1.54483715724 -1.25768986476 7.95473723778e-06)
      29.0394121418                   (-1.54483623034 -1.25768890829 6.6105036013e-06)
      30.9783577414                   (-1.54483585664 -1.25768849564 4.70716446849e-06)
      32.9191996202                   (-1.54483602043 -1.25768865768 2.62999306942e-06)
      34.8628942799                   (-1.54483691854 -1.25768960613 7.98007594793e-07)
      36.8084963926                   (-1.54483833644 -1.25769109545 -5.39845350794e-07)
       38.756010645                   (-1.54484005478 -1.25769301992 -1.17825831747e-06)
      40.7064015802                   (-1.54484200182 -1.25769510398 -7.90846601849e-07)
      42.6587159778                   (-1.54484385801 -1.25769700822 8.27705773689e-07)
      44.6129585872                   (-1.54484512677 -1.25769845429 3.23151097088e-06)
       46.570102101                   (-1.54484575866 -1.25769919649 6.36676293323e-06)
      48.5291853012                   (-1.54484560803 -1.25769906189 9.84780555235e-06)
      50.4902130008                   (-1.54484439474 -1.25769800932 1.3047065033e-05)
      52.4531900321                   (-1.54484244616 -1.25769618697 1.56031284636e-05)
       54.419099798                   (-1.54483999536 -1.25769373033 1.7094298745e-05)
      56.3869705712                   (-1.54483727319 -1.25769116012 1.72138632002e-05)
      58.3568072492                   (-1.54483473142 -1.25768881745 1.59511229787e-05)
      60.3286147493                   (-1.54483287171 -1.25768712767 1.343872707e-05)
      62.3023980085                   (-1.54483188619 -1.25768628519 9.9460702776e-06)
      64.2791538328                   (-1.54483193685 -1.25768669397 6.07252396301e-06)
      66.2578973452                   (-1.54483321744 -1.25768832206 2.31732059629e-06)
      68.2386335499                   (-1.54483557769 -1.25769097623 -7.81707496767e-07)
      70.2213674715                   (-1.54483858038 -1.2576945979 -2.41713231913e-06)
      72.2071070534                   (-1.54484209021 -1.257698788 -2.22251380281e-06)
      74.1948564931                   (-1.54484575241 -1.25770320446 -1.05818115117e-07)
      76.1846208842                   (-1.54484875061 -1.25770718376 3.90894570929e-06)
      78.1774169122                   (-1.54485073668 -1.25771042182 9.3522528207e-06)
      80.1722401996                   (-1.54485159583 -1.25771244846 1.56183101169e-05)
      82.1690959101                   (-1.54485036172 -1.25771304201 2.21828840741e-05)
      84.1690095927                   (-1.54484743913 -1.25771162936 2.80704163569e-05)
      86.1709681767                   (-1.54484322016 -1.25770870111 3.27116006309e-05)
      88.1760035414                   (-1.54483735417 -1.25770506546 3.52176339134e-05)
      90.1830964077                   (-1.54483088582 -1.25770047292 3.57424835609e-05)
      92.1932850471                   (-1.54482483894 -1.2576960832 3.40118525219e-05)
      94.2055439116                   (-1.54481925758 -1.25769239848 3.00275780966e-05)
       96.220917728                   (-1.54481536 -1.2576902954 2.48823056012e-05)
       98.238374618                   (-1.5448136128 -1.25768949454 1.89232830822e-05)
      100.258965827                   (-1.54481379911 -1.25769078717 1.23694106909e-05)
      102.281653086                   (-1.54481589492 -1.25769407709 7.30086887388e-06)
      104.307494223                   (-1.5448195953 -1.25769842621 4.13552452234e-06)
      106.336500736                   (-1.54482428976 -1.25770333049 1.79734921445e-06)
      108.368684191                   (-1.54482893071 -1.25770829931 2.22130547839e-06)
      110.402992249                   (-1.54483335975 -1.25771263503 5.00548522723e-06)
       112.44049723                   (-1.54483627374 -1.2577159471 7.83616344264e-06)
      114.481210879                   (-1.54483741146 -1.25771749277 1.16661206557e-05)
      116.525145014                   (-1.54483722953 -1.25771699557 1.518750664e-05)
      118.572311516                   (-1.54483514285 -1.2577148329 1.76004830132e-05)
      120.622722339                   (-1.5448310414 -1.25771167734 1.73542211502e-05)
      122.676389506                   (-1.5448263613 -1.25770679023 1.48529681697e-05)
      124.732234474                   (-1.54482134529 -1.25770196859 1.06702245606e-05)
       126.79135656                   (-1.54481664189 -1.25769801096 4.92057897002e-06)
      128.853767978                   (-1.54481367393 -1.25769529101 -2.15966711836e-06)
      130.919481016                   (-1.54481213 -1.25769401416 -9.18869034361e-06)
      132.988508031                   (-1.54481241862 -1.25769492158 -1.4627654454e-05)
      135.060861457                   (-1.54481566894 -1.25769908917 -1.89754537122e-05)
      137.136553797                   (-1.54482020289 -1.25770450648 -2.10555905892e-05)
      139.215597633                   (-1.54482558209 -1.25771162138 -1.98322042488e-05)
      141.298005617                   (-1.54483232767 -1.25771965152 -1.57619502188e-05)
      143.383790479                   (-1.54483767792 -1.25772758621 -9.76815269481e-06)
      145.471833906                   (-1.54484122879 -1.25773381746 -1.81179206833e-06)
       147.56327621                   (-1.54484339916 -1.25773858953 7.41117024796e-06)
       149.65699182                   (-1.54484222865 -1.25774230784 1.59215381065e-05)
      151.750707431                   (-1.5448380016 -1.25774290716 2.26982771613e-05)
      153.843284534                   (-1.54483207386 -1.25774092657 2.7762481245e-05)
      155.935861637                   (-1.54482374168 -1.25773734771 2.9931423175e-05)
      158.027300233                   (-1.54481430224 -1.25773310384 2.9462259146e-05)
      160.118738828                   (-1.54480509673 -1.25772695614 2.56812915055e-05)
      162.209038916                   (-1.54479700606 -1.25772080777 1.91746187359e-05)
      164.299339003                   (-1.54479037501 -1.25771604646 1.24516304849e-05)
      166.389639091                   (-1.5447876279 -1.2577125756 6.10439844372e-06)
      168.478800051                   (-1.54478798637 -1.25771068641 -1.21216183693e-06)
       170.56796101                   (-1.54479126641 -1.25771040845 -6.36816849659e-06)
      172.655982842                   (-1.54479772195 -1.25771205133 -8.41250743742e-06)
      174.744004673                   (-1.54480606923 -1.25771468292 -9.13399291752e-06)
      176.832026505                   (-1.54481507099 -1.25771767407 -7.64022745242e-06)
      178.918908587                   (-1.54482420942 -1.25772009097 -3.90610303906e-06)
      181.005790668                   (-1.54483087728 -1.2577212023 7.02103661978e-07)
         183.091533                   (-1.54483464332 -1.25772066128 4.97557282739e-06)
      185.177275332                   (-1.54483689828 -1.25771781694 9.43989849982e-06)
      187.263017663                   (-1.54483636175 -1.25771408739 1.28488607004e-05)
      189.347619622                   (-1.54483364775 -1.25770930846 1.34339845774e-05)
      191.432221581                   (-1.54483071089 -1.25770282892 1.08658499856e-05)
      193.515683166                   (-1.54482687026 -1.25769680787 6.05749404648e-06)
      195.599144752                   (-1.54482355157 -1.25769115056 -1.60106482522e-06)
      197.682606337                   (-1.54482246244 -1.25768658704 -1.07283270396e-05)
      199.764926925                   (-1.5448221261 -1.25768307641 -2.04436875829e-05)
      201.847247513                   (-1.54482336499 -1.25768123196 -2.87994170525e-05)
      203.928427104                   (-1.54482748972 -1.25768270647 -3.46716693693e-05)
      206.009606694                   (-1.54483206592 -1.25768562532 -3.84219439626e-05)
      208.089645287                   (-1.54483700317 -1.25768986786 -3.86624655163e-05)
       210.16968388                   (-1.54484289875 -1.25769535866 -3.46868692823e-05)
      212.248581475                   (-1.54484781021 -1.25770189204 -2.87355951814e-05)
       214.32747907                   (-1.54485076294 -1.25770702751 -2.00650611923e-05)
      216.405235668                   (-1.54485200563 -1.25771076994 -9.32465339094e-06)
      218.482992265                   (-1.54485079993 -1.25771454494 7.48559116307e-07)
      220.560748863                   (-1.54484697822 -1.25771716809 1.08324762178e-05)
      222.637363836                   (-1.54484197464 -1.25771791547 1.90595882719e-05)
      224.713978809                   (-1.54483640087 -1.25771832598 2.37463068887e-05)
      226.789452158                   (-1.54482885113 -1.25771851087 2.54334197934e-05)
      228.864925507                   (-1.54482203362 -1.25771802007 2.47275318846e-05)
      230.939257231                   (-1.54481676801 -1.25771622145 1.89797233983e-05)
      233.013588955                   (-1.5448105239 -1.2577140552 1.25290560677e-05)
      235.086779055                   (-1.54480647793 -1.25771259171 7.48792284753e-06)
      237.159969154                   (-1.54480645397 -1.25771160928 1.84496609492e-06)
      239.232017629                   (-1.54480669961 -1.25771156687 -1.71167198554e-06)
      241.304066105                   (-1.5448093199 -1.25771236255 -3.54672281986e-07)
      243.374972955                   (-1.544814895 -1.25771398129 5.28110590659e-06)
      245.445879806                   (-1.54481929117 -1.25771588705 1.32914209378e-05)
      247.515645032                   (-1.5448252714 -1.25771691114 2.54097443545e-05)
      249.585410258                   (-1.54483201116 -1.25771687255 4.22761118933e-05)
       251.65403386                   (-1.54483723181 -1.25771607911 5.95044757259e-05)
      253.721516466                   (-1.54484296395 -1.25771344816 7.8257057141e-05)
      255.788999073                   (-1.54485044351 -1.25770925958 9.72884048519e-05)
      257.855340685                   (-1.54485706076 -1.25770308365 0.000112975003606)
      259.921682297                   (-1.54486295762 -1.25769486882 0.000125053435358)
      261.986882914                   (-1.5448684016 -1.25768451193 0.000134252011022)
      264.050943167                   (-1.54487242753 -1.25767188646 0.000137754057288)
      266.115003419                   (-1.54487404075 -1.25765937084 0.000139188881937)
      268.177923307                   (-1.54487571768 -1.25764778767 0.000139194643251)
      270.240843194                   (-1.5448763983 -1.25763778891 0.000137026575413)
      272.302622717                   (-1.54487575919 -1.25763013067 0.000135724457842)
      274.363262506                   (-1.5448755804 -1.25762624326 0.000135674553826)
      276.423902294                   (-1.54487635441 -1.25762606151 0.0001361499984)
      278.483402348                   (-1.54487709321 -1.25762707281 0.000138787607459)
      280.541763298                   (-1.54487784058 -1.25762995287 0.000145009123833)
      282.600124248                   (-1.54487943443 -1.25763488107 0.000153116991953)
      284.657346094                   (-1.5448799889 -1.25763971269 0.000161601029505)
       286.71456794                   (-1.54487874791 -1.25764308419 0.000171274340099)
      288.770650682                   (-1.54487728386 -1.257646313 0.000180170226814)
      290.825594951                   (-1.54487325944 -1.25764934118 0.000188007659271)
      292.879401377                   (-1.54486615 -1.25765166285 0.000193888417147)
      294.933207803                   (-1.54485870215 -1.25765251525 0.000195870735671)
      296.985876386                   (-1.5448485462 -1.25765422035 0.000195920887029)
      299.037407756                   (-1.54483647507 -1.2576572071 0.000194676674094)
      301.088939126                   (-1.54482578881 -1.25766120006 0.000191366092644)
      303.139333284                   (-1.54481613998 -1.25766644405 0.000186280547401)
       305.18859086                   (-1.54480697308 -1.25767328921 0.000183557364846)
      307.237848436                   (-1.54480176091 -1.25768192899 0.000184729729256)
       309.28596943                   (-1.54479899366 -1.25769130571 0.000188463140683)
      311.332954472                   (-1.54479765169 -1.25770068644 0.00019631065164)
      313.378804192                   (-1.54480050568 -1.25770986437 0.000210843826027)
      315.424653912                   (-1.54480625997 -1.25771908241 0.000230234168429)
       317.46936831                   (-1.54481501348 -1.25772842807 0.000252892147611)
      319.512948017                   (-1.54482731638 -1.25773695792 0.000282558991934)
      321.555393662                   (-1.54484279201 -1.25774451947 0.000314837869292)
      323.597839307                   (-1.54486104043 -1.25775134274 0.000347421210983)
       325.63915089                   (-1.54488078279 -1.25775463328 0.000380188316309)
       327.67932904                   (-1.54490206776 -1.2577557474 0.000409010523892)
      329.718374388                   (-1.54492266968 -1.25775201313 0.000433828892846)
      331.757419735                   (-1.5449412021 -1.2577428189 0.000453785909118)
       333.79533228                   (-1.54495751376 -1.25772923729 0.000470498202689)
      335.832112651                   (-1.5449689078 -1.25771038824 0.000484154749604)
      337.867761477                   (-1.54497488982 -1.25768780793 0.000495244872643)
      339.903410304                   (-1.54497582539 -1.25766189844 0.000507148870444)
      341.937927585                   (-1.54497375791 -1.25763575745 0.000515981911574)
      343.971313951                   (-1.54496829237 -1.25761191982 0.000525827879326)
       346.00357003                   (-1.54496091008 -1.25759154428 0.00053664142219)
      348.035826109                   (-1.5449535034 -1.25757554959 0.000546388728045)
      350.066951901                   (-1.54494508969 -1.25756357671 0.000554011458897)
      352.096948035                   (-1.54493539641 -1.25755436276 0.000560721689365)
      354.125815138                   (-1.54492554787 -1.25754827202 0.000564862532928)
      356.154682241                   (-1.54491346134 -1.25754443799 0.000567233077713)
      358.182420315                   (-1.54489832797 -1.25754171001 0.000567859918402)
      360.209029986                   (-1.54488144549 -1.25753895808 0.000568244069907)
      362.234511884                   (-1.54486252548 -1.2575369087 0.000567102889281)
      364.259993782                   (-1.54484114027 -1.2575359952 0.000566033136195)
      366.284347905                   (-1.54481882744 -1.25753617165 0.00056584900707)
      368.307574883                   (-1.54479744901 -1.2575389839 0.000567421897165)
      370.329675342                   (-1.54477882616 -1.25754497004 0.000569290538312)
      372.351775802                   (-1.54476503017 -1.25755550537 0.000571222252606)
      374.372749743                   (-1.54475727324 -1.25757161203 0.000572387670321)
      376.392597793                   (-1.54475582027 -1.25758983424 0.000575550275572)
       378.41132058                   (-1.54475972176 -1.25761090896 0.000580410666291)
      380.430043367                   (-1.54476886079 -1.25763286634 0.000585429097015)
       382.44764089                   (-1.54478115277 -1.2576541081 0.000592007159271)
      384.464113777                   (-1.54479645758 -1.25767339269 0.000602949272702)
      386.480586664                   (-1.54481431371 -1.25769348442 0.000621227049866)
      388.495934914                   (-1.5448343771 -1.25771217999 0.00064233131311)
      390.510159156                   (-1.54485517907 -1.25773040182 0.000667379760791)
      392.523260015                   (-1.54487676961 -1.25774862201 0.000698834359783)
      394.536360875                   (-1.54490025463 -1.2577658211 0.000733817437958)
      396.548338352                   (-1.54492421258 -1.25778379216 0.000766660092346)
      398.559193074                   (-1.54494749922 -1.25780170408 0.000798907770071)
      400.570047796                   (-1.54496915811 -1.25781857237 0.000830857561791)
      402.579779762                   (-1.54498874901 -1.25783268008 0.000858059400628)
        404.5883896                   (-1.54500295437 -1.25784371087 0.000879494292831)
      406.596999439                   (-1.54501258858 -1.25785081475 0.000900400639135)
      408.604487148                   (-1.54501639533 -1.25785460249 0.00091596812441)
      410.610853357                   (-1.5450111652 -1.25785257218 0.000929721397642)
      412.617219565                   (-1.54499628565 -1.25784304479 0.000943189545659)
      414.622464272                   (-1.54497423584 -1.25782691761 0.000955145817405)
      416.627708979                   (-1.54494505329 -1.25780696347 0.000967732138404)
      418.631832184                   (-1.54491395673 -1.25778502909 0.000979491125345)
      420.634834515                   (-1.54488041608 -1.25776221555 0.00098933805665)
      422.637836846                   (-1.54484754081 -1.25773774518 0.000996466437593)
      424.639718303                   (-1.54481322625 -1.25771327695 0.00100158694767)
      426.641599759                   (-1.54478021338 -1.25768785774 0.00100461444802)
      428.642360342                   (-1.54474919615 -1.25766272982 0.00100588003144)
      430.643120924                   (-1.54471918204 -1.25763676277 0.00100559985651)
      432.642760632                   (-1.54469142572 -1.25761128611 0.00100523941746)
      434.641280094                   (-1.54466854403 -1.25758671087 0.0010059521014)
      436.639799556                   (-1.5446498065 -1.25756477197 0.00100818457978)
      438.637198771                   (-1.54463693214 -1.25754541413 0.00101289897387)
      440.634597987                   (-1.54463480883 -1.25753246485 0.00101982902006)
      442.630876956                   (-1.54464203013 -1.25752800654 0.00102816372477)
      444.627155925                   (-1.54465878798 -1.25753129185 0.00103405254399)
      446.622314648                   (-1.54468473997 -1.25754061191 0.00103704476541)
      448.617473371                   (-1.54471594392 -1.25755577433 0.00103644668276)
      450.611511847                   (-1.54474807131 -1.25757287503 0.00103270451357)
      452.605550324                   (-1.54478216648 -1.25759344922 0.00102730960596)
        454.5995888                   (-1.54481365653 -1.2576132649 0.00101926704113)
      456.592506401                   (-1.54484497085 -1.25763459435 0.00101225340723)
      458.585424001                   (-1.54487287753 -1.25765481954 0.00100952892878)
      460.577220726                   (-1.54489833941 -1.2576750448 0.0010123141595)
       462.56901745                   (-1.5449193692 -1.25769388667 0.00101883009509)
      464.559693299                   (-1.54493731031 -1.2577121526 0.0010303469238)
      466.550369147                   (-1.54495155033 -1.25773164844 0.00104901242866)
      468.541044995                   (-1.54496311971 -1.25775342053 0.0010731622156)
      470.530599336                   (-1.54497284813 -1.25777662672 0.00110093594362)
      472.520153677                   (-1.54497896766 -1.25780358999 0.00113388658434)
      474.509708018                   (-1.54498163243 -1.25783364219 0.00117164665092)
      476.498140219                   (-1.54497842717 -1.25786502935 0.0012074594845)
      478.486572419                   (-1.54496968654 -1.25789673888 0.00123985956777)
       480.47388248                   (-1.54495321772 -1.25792886114 0.0012696418306)
      482.461192541                   (-1.54492985971 -1.25795816438 0.0012969121671)
      484.448502601                   (-1.54489876407 -1.25798422243 0.00131955347775)
      486.434689888                   (-1.54486173685 -1.25800183762 0.00133752618133)
      488.420877175                   (-1.54481727333 -1.25801063914 0.00135151901022)
      490.407064461                   (-1.54477037309 -1.25801169999 0.00136377159524)
      492.393251748                   (-1.54472374678 -1.2580059286 0.00137503276106)
       494.37831499                   (-1.54467869851 -1.25799205994 0.00138538741842)
      496.363378232                   (-1.54463736587 -1.25797040156 0.00139441929388)
      498.348441474                   (-1.54460109679 -1.25794238167 0.00140151798278)
      500.332380034                   (-1.54457184634 -1.25790955397 0.00140885941964)
      502.316318594                   (-1.54455111747 -1.2578729054 0.00141598186219)
      504.300257154                   (-1.54454011843 -1.25783203521 0.00142362226798)
      506.284195714                   (-1.54453856753 -1.25778959765 0.00143215322146)
      508.267008316                   (-1.5445460619 -1.25774665 0.00144078551225)
      510.249820917                   (-1.54456765947 -1.25770397619 0.00145791694356)
      512.232633519                   (-1.54459057519 -1.25766877007 0.00144183040128)
      514.215446121                   (-1.54462839751 -1.25763417614 0.00144971021906)
      516.198258723                   (-1.54466574723 -1.2576105684 0.0014271832694)
      518.179943445                   (-1.5447135837 -1.25758984815 0.00143306419174)
      520.161628167                   (-1.54475336841 -1.25757856289 0.00141214916767)
      522.143312889                   (-1.54481490204 -1.25755275458 0.00147922632676)
      524.124997611                   (-1.54485350533 -1.25754509257 0.00148291753501)
      526.037972295                   (-1.54489719366 -1.25753377681 0.00150323914558)
      527.837020471                   (-1.5449313861 -1.25752773307 0.00149426929599)
      529.735414665                   (-1.54496802531 -1.25752431514 0.00148548414035)
       531.70939907                   (-1.54498869258 -1.25753494281 0.00146971892006)
      533.645909735                   (-1.54501305804 -1.25752912271 0.00137860687091)
      535.625552277                   (-1.54502442562 -1.25754662739 0.00135410529164)
      537.179083419                   (-1.54502494729 -1.25755244125 0.00135181738315)
      538.608229485                   (-1.54502062761 -1.25755949911 0.00135736286811)
      540.040331996                   (-1.54501318458 -1.25756421295 0.00136605048861)
      541.511403284                   (-1.54500247994 -1.25757061717 0.00138351603879)
      543.034295665                   (-1.54498918753 -1.25757988499 0.00140439440469)
      544.576207219                   (-1.54497640131 -1.25759294921 0.00142919380686)
      546.129904967                   (-1.54496417576 -1.2576119703 0.00145656652343)
        547.7070146                   (-1.54494942446 -1.25763702676 0.00148910434983)
      549.308263665                   (-1.54493402764 -1.25766552264 0.00152577858192)
      550.908770037                   (-1.54491816529 -1.25769628722 0.00156407908648)
       552.52049491                   (-1.54490141231 -1.25772976363 0.00160237089573)
      554.153597471                   (-1.54487966021 -1.25776471171 0.00164141855591)
      555.793695711                   (-1.54485411047 -1.2577996129 0.00167690792624)
      557.433013324                   (-1.54482659785 -1.257831148 0.00170762545185)
      559.075459405                   (-1.54479769335 -1.25785900755 0.00173533677263)
      560.717905486                   (-1.54476554713 -1.25788368149 0.00176000269892)
      562.356439119                   (-1.54473228368 -1.25790478543 0.00178109892774)
      563.996536238                   (-1.54470175953 -1.25792068795 0.00179979079019)
      565.635850867                   (-1.54467451384 -1.25792857467 0.00181454098709)
       567.27594836                   (-1.54464721779 -1.25793069678 0.00182865798424)
      568.916045852                   (-1.54462484029 -1.25792500136 0.00184152955765)
      570.553013388                   (-1.54460838786 -1.25791453094 0.00185408824355)
      572.196255834                   (-1.54459803126 -1.25789795483 0.00186541937535)
      573.841075289                   (-1.54459244982 -1.25787705092 0.00187822044835)
      575.479601796                   (-1.54459626505 -1.25785151025 0.00189294141753)
      577.124424273                   (-1.54460824816 -1.25782467662 0.00191048767147)
      578.771621374                   (-1.54462696172 -1.25779618754 0.00193017817748)
      580.414073788                   (-1.54465005865 -1.25776612964 0.00195221199211)
      582.059687805                   (-1.54468133169 -1.25773554854 0.00197732613985)
      583.710069414                   (-1.5447201 -1.25770506989 0.00200547658924)
       585.35726803                   (-1.54476466014 -1.25767455995 0.00203410672481)
      587.004466647                   (-1.54481157759 -1.25764494931 0.00206220776876)
      588.655649778                   (-1.54486158924 -1.25761490361 0.00209208466874)
      590.308432894                   (-1.5449144564 -1.2575845867 0.00212249749353)
      591.959615251                   (-1.54496640877 -1.25755314374 0.00214877384036)
      593.614003787                   (-1.54501563034 -1.25752091623 0.00217294916307)
      595.271612544                   (-1.54506314262 -1.25748775395 0.0021965087542)
      596.927608842                   (-1.54510750996 -1.25745395775 0.00221824839353)
      598.586834776                   (-1.54514649945 -1.25741986311 0.00223516170646)
      600.247681048                   (-1.54517646977 -1.257387345 0.00225040278654)
      601.909339073                   (-1.54519878488 -1.25735292435 0.00226281863115)
      603.574253655                   (-1.54521236532 -1.25732179589 0.00227539844477)
      605.238352501                   (-1.54521921882 -1.2572939728 0.00228394957313)
      606.906540043                   (-1.54521620476 -1.25727251562 0.00229410647133)
      608.577191673                   (-1.54520559459 -1.25725518577 0.00230356299469)
      610.245378003                   (-1.54518799425 -1.25724611473 0.00231323968198)
      611.920157954                   (-1.54516523581 -1.25724238541 0.00232263596778)
      613.597425203                   (-1.54513559019 -1.25724744868 0.00233187517466)
      615.271376055                   (-1.54510141632 -1.25725865034 0.00234231300584)
      616.951976167                   (-1.54506405612 -1.25727845753 0.00235261132476)
      618.635084636                   (-1.54502418991 -1.25730460004 0.0023628851604)
      620.314848628                   (-1.54498106937 -1.25733720573 0.00237209480071)
      621.999636839                   (-1.54493718394 -1.25737455196 0.00238128567846)
      623.686107315                   (-1.54489682945 -1.25741721255 0.00238416507311)
      625.371735818                   (-1.54485960535 -1.2574630682 0.00238433643811)
      627.060738954                   (-1.54482395233 -1.25751244258 0.00238045018234)
      628.751435325                   (-1.54479351368 -1.25756245073 0.002372433076)
      630.443829183                   (-1.54477103334 -1.25760918122 0.0023576805282)
      632.137924794                   (-1.54475317184 -1.25765366761 0.00233708017732)
      633.833726443                   (-1.54474061966 -1.25769421785 0.00231077110703)
      635.532952225                   (-1.54473514195 -1.2577292971 0.00228254629884)
      637.233036635                   (-1.5447362669 -1.25775855828 0.00225258635627)
      638.933121045                   (-1.54474175883 -1.25778126904 0.00222499723537)
      640.639246365                   (-1.54475169006 -1.2577990679 0.00219872913142)
      642.346238617                   (-1.54476802537 -1.25781117495 0.00217661294234)
      644.051497003                   (-1.54479103943 -1.25781807846 0.00215986493521)
      645.761098889                   (-1.54481601055 -1.25782013773 0.0021479541628)
      647.473318849                   (-1.54484426165 -1.25781813643 0.0021445991836)
      649.184664781                   (-1.54487662905 -1.25781211611 0.00214885867652)
      650.899513981                   (-1.54491025828 -1.25780256423 0.00215951796191)
      652.617882624                   (-1.54494462722 -1.25779072345 0.00217581236879)
      654.336251267                   (-1.54498114292 -1.25777690414 0.00220062834631)
      656.057271714                   (-1.54502208747 -1.25776173459 0.00223273915072)